! Touchstone file exported from HFSS 2018.2.0
!        File:           D:/Ansoft_projects/ML9294A_springs.aedt
!        Generated:      12:58:45 PM  May 30, 2019
!        Design:         GSG
!        Project:        ML9294A_springs
!        Setup:          Setup1
!        Solution:       Logsweep
!
# GHZ S MA R 50.000000
! Terminal data exported
! Port[1] = Tip
! Port[2] = Post
1E-09            0.0785489419037081 93.6822952404355 0.995724203383144 4.52599615370854 0.995724203383144 4.52599615370854 0.0789249376764415 93.686314943204  
! Port Impedance50               0                0                0                0                0                50               0                

1.0471285480509E-09 0.0657383114191616 -92.7751439361466 0.99666115481859 -3.7853885323395 0.996661154818647 -3.78538853233929 0.0660148181608018 -92.7793757873622 
! Port Impedance50               0                0                0                0                0                50               0                

1.09647819614319E-09 0.117249780385889 -96.2010406962208 0.991886592086237 -6.76442976193578 0.991886592086292 -6.76442976193499 0.117790315512949 -96.2036260946868 
! Port Impedance50               0                0                0                0                0                50               0                

1.14815362149688E-09 0.0773716000780384 -93.6006311168258 0.995818053507942 -4.45763424537388 0.995818053507942 -4.45763424537388 0.0777291209026725 -93.6045731992018 
! Port Impedance50               0                0                0                0                0                50               0                

1.20226443461741E-09 0.170646752797959 99.4882936761098 0.984049117677787 9.87182536878997 0.984049117677874 9.87182536878993 0.17145517792957 99.4901021487242 
! Port Impedance50               0                0                0                0                0                50               0                

1.25892541179417E-09 0.00401554175915528 73.4219983387921 0.998831842330231 0.221688147792703 0.998831842330174 0.221688147791824 0.00404627324771675 73.5533336915718 
! Port Impedance50               0                0                0                0                0                50               0                

1.31825673855641E-09 0.0813980904030212 -93.8754119840083 0.995495373533259 -4.68996533901331 0.99549537353326 -4.68996533901372 0.0817670841197043 -93.879088032369 
! Port Impedance50               0                0                0                0                0                50               0                

1.38038426460288E-09 0.033041798050526 89.8887733908296 0.998289815140996 1.90091357828393 0.998289815140996 1.90091357828413 0.0331872685420651 89.8975969167527 
! Port Impedance50               0                0                0                0                0                50               0                

1.44543977074593E-09 0.209217797828763 -101.822076100016 0.976528248812796 -12.1331392706276 0.976528248812796 -12.1331392706276 0.210181823654454 -101.823502771701 
! Port Impedance50               0                0                0                0                0                50               0                

1.51356124843621E-09 0.0223249896256584 88.3048409646602 0.998588491006332 1.28379999291964 0.998588491006332 1.28379999291969 0.0224406213338213 88.3202047284052 
! Port Impedance50               0                0                0                0                0                50               0                

1.58489319246111E-09 0.0692407076695783 93.0305347052545 0.996419991879292 3.98850764575115 0.996419991879406 3.98850764575111 0.0695688205433891 93.0350533700663 
! Port Impedance50               0                0                0                0                0                50               0                

1.65958690743756E-09 0.145779785546174 -97.9697957091919 0.988070463525678 -8.42127883886416 0.988070463525678 -8.42127883886395 0.146450965246425 -97.9718648012472 
! Port Impedance50               0                0                0                0                0                50               0                

1.73780082874937E-09 0.0784932264827031 -93.677745096139 0.995729628411201 -4.522415854934  0.995729628411172 -4.52241585493372 0.0788563813732462 -93.681635224942 
! Port Impedance50               0                0                0                0                0                50               0                

1.81970085860998E-09 0.09370576535746 -94.694778382898 0.994404315553149 -5.40142914812261 0.994404315553149 -5.40142914812241 0.0941382320963907 -94.6980247763507 
! Port Impedance50               0                0                0                0                0                50               0                

1.90546071796325E-09 0.0726599949357222 -93.2728738164355 0.996175185647662 -4.18569520859549 0.996175185647719 -4.18569520859546 0.0729983369761664 -93.2771049391909 
! Port Impedance50               0                0                0                0                0                50               0                

1.99526231496888E-09 0.0989512488690062 95.0364504589413 0.993891684051002 5.70506030857286 0.99389168405103 5.7050603085729  0.0994164869135331 95.0395795863688 
! Port Impedance50               0                0                0                0                0                50               0                

2.08929613085404E-09 0.0689113386596855 -93.0061497983214 0.996443918548972 -3.96911224391452 0.996443918548972 -3.96911224391452 0.0692244675703571 -93.01050595189  
! Port Impedance50               0                0                0                0                0                50               0                

2.18776162394955E-09 0.0153216945135581 86.5352847384917 0.998721764967418 0.879319935572129 0.998721764967361 0.879319935572051 0.0153878364528384 86.5539925570138 
! Port Impedance50               0                0                0                0                0                50               0                

2.29086765276777E-09 0.076867370859598 -93.5661054441957 0.995857044298939 -4.42864127254397 0.995857044299052 -4.42864127254346 0.0772267936250556 -93.5701199761514 
! Port Impedance50               0                0                0                0                0                50               0                

2.39883291901949E-09 0.0612039502414104 92.4403812027115 0.996949702105165 3.52478919745877 0.996949702105137 3.52478919745887 0.061493586964089 92.4454895255605 
! Port Impedance50               0                0                0                0                0                50               0                

2.51188643150958E-09 0.017350273861929 -87.1616186102413 0.998688231995748 -0.996619910004069 0.998688231995748 -0.996619910004095 0.0174334265195992 -87.1799375437048 
! Port Impedance50               0                0                0                0                0                50               0                

2.63026799189538E-09 0.00273347692111579 -65.0166743034527 0.998836281042806 -0.14229364625811 0.998836281042891 -0.142293646259124 0.00273872564273184 -65.0681603812409 
! Port Impedance50               0                0                0                0                0                50               0                

2.75422870333817E-09 0.162782287418385 -99.0090567501454 0.985392680368461 -9.41215752966608 0.985392680368434 -9.41215752966676 0.163538000368707 -99.010919379749 
! Port Impedance50               0                0                0                0                0                50               0                

2.88403150312661E-09 0.0740773913339612 -93.3722296003792 0.996070093972252 -4.26750354147524 0.996070093972223 -4.26750354147516 0.0744218643213705 -93.3763737001501 
! Port Impedance50               0                0                0                0                0                50               0                

3.01995172040202E-09 0.0310655139980283 -89.6470878546068 0.998353483012407 -1.78721992854215 0.998353483012378 -1.78721992854215 0.0312087254719785 -89.6569129452376 
! Port Impedance50               0                0                0                0                0                50               0                

3.16227766016838E-09 0.047109163152499 91.3021128488441 0.997720405090571 2.7121049724575  0.997720405090542 2.71210497245757 0.0473348527184671 91.3088371114578 
! Port Impedance50               0                0                0                0                0                50               0                

3.31131121482591E-09 0.0528326446760699 -91.7847555051467 0.997432101915649 -3.04183120548821 0.997432101915648 -3.04183120548791 0.0530767198589506 -91.790536971452 
! Port Impedance50               0                0                0                0                0                50               0                

3.46736850452532E-09 0.0405536242626087 90.6953994362347 0.998010675869556 2.33406745500453 0.998010675869556 2.33406745500473 0.0407424086718124 90.7029946135882 
! Port Impedance50               0                0                0                0                0                50               0                

3.63078054770101E-09 0.00270419825316479 64.7242859985189 0.998836329085931 0.140799360977354 0.998836329085931 0.140799360979093 0.00272092015542313 64.891494505368  
! Port Impedance50               0                0                0                0                0                50               0                

3.80189396320561E-09 0.0344957700474223 90.0581403760231 0.998239909709075 1.98503128614638 0.99823990970916 1.98503128614621 0.0346593304488128 90.0672371539972 
! Port Impedance50               0                0                0                0                0                50               0                

3.98107170553497E-09 0.0247515195331213 88.7364616895542 0.998531176009814 1.42333471125103 0.998531176009871 1.42333471125106 0.0248662392938299 88.7488667374261 
! Port Impedance50               0                0                0                0                0                50               0                

4.16869383470335E-09 0.0146607447119804 86.3012364162327 0.998731650232238 0.841357618920836 0.998731650232238 0.841357618920811 0.0147308194573397 86.3228790444922 
! Port Impedance50               0                0                0                0                0                50               0                

4.36515832240166E-09 0.010473256926077 -84.2368692566316 0.998784754047306 -0.599131908108456 0.998784754047278 -0.599131908108065 0.0105202347800043 -84.2653961360811 
! Port Impedance50               0                0                0                0                0                50               0                

4.57088189614875E-09 0.00156810752262934 -42.3158808022081 0.998838798175177 -0.0606347332773248 0.998838798175177 -0.0606347332780556 0.00156995142493952 -42.3898990087423 
! Port Impedance50               0                0                0                0                0                50               0                

4.78630092322638E-09 0.0433342192848524 -90.9608352853505 0.997893126236962 -2.49423871699232 0.997893126237019 -2.49423871699228 0.0435327954454042 -90.9678313746351 
! Port Impedance50               0                0                0                0                0                50               0                

5.01187233627272E-09 0.0181507215094705 -87.3768889647684 0.998674006819798 -1.04263720345344 0.998674006819855 -1.04263720345338 0.0182318956111312 -87.393231931882 
! Port Impedance50               0                0                0                0                0                50               0                

5.24807460249773E-09 0.00526574151269196 77.562731711008  0.998826033970608 0.295785419292522 0.998826033970637 0.295785419292934 0.00529343749471916 77.6304629276301 
! Port Impedance50               0                0                0                0                0                50               0                

5.49540873857625E-09 0.00128403993820717 -25.3558705940197 0.998839205630443 -0.031503980636459 0.998839205630415 -0.0315039806336116 0.00128346960185263 -25.3020141227272 
! Port Impedance50               0                0                0                0                0                50               0                

5.75439937337157E-09 0.0238883074107982 -88.5894215616639 0.998552369822764 -1.37354540012169 0.998552369822736 -1.37354540012173 0.0239979831090605 -88.6021552475107 
! Port Impedance50               0                0                0                0                0                50               0                

6.02559586074358E-09 0.0012443632749686 -21.1625762313743 0.998839255968278 -0.0256626653077063 0.998839255968306 -0.0256626653072773 0.00124302825320224 -21.0028311959667 
! Port Impedance50               0                0                0                0                0                50               0                

6.30957344480193E-09 0.00199015313631188 54.4175461107725 0.99883804141002 0.093017390319078 0.99883804141002 0.0930173903190239 0.00199507906067723 54.5190430919607 
! Port Impedance50               0                0                0                0                0                50               0                

6.60693448007596E-09 0.0101131673736392 83.9886438044126 0.998788458553089 0.578360726899364 0.998788458553004 0.578360726899388 0.0101615923016239 84.0201855393069 
! Port Impedance50               0                0                0                0                0                50               0                

6.91830970918936E-09 0.00746613604464517 -81.4814206353913 0.998811964012003 -0.424436651568036 0.998811964012088 -0.424436651567822 0.0074961623959778 -81.5175341162728 
! Port Impedance50               0                0                0                0                0                50               0                

7.2443596007499E-09 0.0539442456113915 -91.8748743756958 0.997372145271102 -3.10594737201772 0.997372145270959 -3.10594737201796 0.0541942629603418 -91.8805542562728 
! Port Impedance50               0                0                0                0                0                50               0                

7.58577575029184E-09 0.0161770468693016 -86.8150507437089 0.998708117211748 -0.928822882399105 0.998708117211748 -0.928822882399232 0.0162515575247558 -86.8339435788271 
! Port Impedance50               0                0                0                0                0                50               0                

7.94328234724281E-09 0.011759622053489 -85.0098830293371 0.998770317380982 -0.673641946635409 0.998770317380953 -0.673641946635403 0.0118143985616982 -85.036227462724 
! Port Impedance50               0                0                0                0                0                50               0                

8.31763771102671E-09 0.0262888023944169 -88.9822255389329 0.998491690424045 -1.51185860980954 0.998491690424045 -1.51185860980959 0.0264076604519858 -88.9936180881886 
! Port Impedance50               0                0                0                0                0                50               0                

8.7096358995608E-09 0.0284858751311907 -89.3042667004837 0.99843098352835 -1.63851804051998 0.99843098352835 -1.63851804051998 0.0286159628749936 -89.3148835798793 
! Port Impedance50               0                0                0                0                0                50               0                

9.1201083935591E-09 0.0277856201099462 -89.205033523805 0.998450836689098 -1.59817652865112 0.998450836689042 -1.59817652865111 0.0279130489999878 -89.2159645781559 
! Port Impedance50               0                0                0                0                0                50               0                

9.54992586021436E-09 0.00301875489746949 -67.5491210446718 0.998835444263571 -0.160388406276215 0.998835444263514 -0.160388406275988 0.00303000282662879 -67.6376764659209 
! Port Impedance50               0                0                0                0                0                50               0                

1E-08            0.0172523051687273 -87.1340128030212 0.998689982098236 -0.990899215933884 0.998689982098236 -0.990899215933884 0.0173326411716386 -87.1519156555849 
! Port Impedance50               0                0                0                0                0                50               0                

1.0471285480509E-08 0.0159523903185573 -86.7440343978931 0.998711755585958 -0.915855950426769 0.99871175558593 -0.915855950426668 0.0160258630653229 -86.7631937882167 
! Port Impedance50               0                0                0                0                0                50               0                

1.09647819614319E-08 0.0206719574779539 -87.9701624761775 0.998624623906336 -1.18811350619035 0.998624623906336 -1.1881135061903 0.0207669342882496 -87.9848944912665 
! Port Impedance50               0                0                0                0                0                50               0                

1.14815362149688E-08 0.00520371696083909 77.4044710334447 0.998826381776272 0.292014848569839 0.998826381776272 0.292014848570603 0.00522741310121029 77.4638900605096 
! Port Impedance50               0                0                0                0                0                50               0                

1.20226443461741E-08 0.0102480808816229 -84.0834582657432 0.998787098863289 -0.586106591871856 0.998787098863317 -0.586106591871635 0.01029465537861 -84.113002710931 
! Port Impedance50               0                0                0                0                0                50               0                

1.25892541179417E-08 0.00653609041287891 -80.1419378463485 0.998818501550378 -0.37025488738731 0.998818501550378 -0.370254887387017 0.00656544776557616 -80.1881618235426 
! Port Impedance50               0                0                0                0                0                50               0                

1.31825673855641E-08 0.0138512743984748 -85.9883573662179 0.998743319317302 -0.794537450773964 0.998743319317245 -0.794537450773983 0.0139152930132813 -86.0105196304937 
! Port Impedance50               0                0                0                0                0                50               0                

1.38038426460288E-08 0.00228418323313641 -59.5743688635176 0.998837408808184 -0.11319349565485 0.998837408808184 -0.113193495654022 0.00229052251323552 -59.6678744670553 
! Port Impedance50               0                0                0                0                0                50               0                

1.44543977074593E-08 0.00678202020437583 80.531051829036  0.998816844671173 0.384657160648013 0.998816844671173 0.384657160648026 0.00681345311869597 80.5769611802073 
! Port Impedance50               0                0                0                0                0                50               0                

1.51356124843621E-08 0.00116106549543936 1.54390989071973 0.998839356255308 0.00178035681407168 0.99883935625528 0.00178035679218015 0.00116105273999156 1.52034244527435 
! Port Impedance50               0                0                0                0                0                50               0                

1.58489319246111E-08 0.0023012049774218 59.8253238221083 0.998837365721628 0.114390786772699 0.998837365721571 0.114390786772785 0.00230950094862747 59.9454655460108 
! Port Impedance50               0                0                0                0                0                50               0                

1.65958690743756E-08 0.00319128423662293 -68.8440100339108 0.99883490688787 -0.171070937437455 0.998834906887813 -0.171070937437382 0.00320260142105613 -68.9230375361276 
! Port Impedance50               0                0                0                0                0                50               0                

1.73780082874937E-08 0.00598861641646437 -79.1632420034904 0.998821958748933 -0.338179887941701 0.998821958748933 -0.338179887941637 0.00601521099973454 -79.2132798897098 
! Port Impedance50               0                0                0                0                0                50               0                

1.81970085860998E-08 0.00295170327371278 -67.0018019947902 0.998835644299803 -0.156212291815636 0.99883564429986 -0.156212291815283 0.00296301059416634 -67.0952761554802 
! Port Impedance50               0                0                0                0                0                50               0                

1.90546071796325E-08 0.00598859206478798 -79.1631552713201 0.998821962939349 -0.338155663454993 0.998821962939377 -0.338155663454856 0.00601440679765852 -79.2117326819124 
! Port Impedance50               0                0                0                0                0                50               0                

1.99526231496888E-08 0.00262526317483146 -63.8972642941645 0.998836562608956 -0.135528558820269 0.998836562608956 -0.135528558820122 0.00263452269067483 -63.9964777358905 
! Port Impedance50               0                0                0                0                0                50               0                

2.08929613085404E-08 0.00375240494844438 72.1880844342877 0.99883293623653 0.205419264076675 0.998832936236501 0.205419264076617 0.00376863798024486 72.2683387075575 
! Port Impedance50               0                0                0                0                0                50               0                

2.18776162394955E-08 0.00590032465670527 -78.9886198137231 0.998822488965389 -0.332991773902768 0.998822488965418 -0.332991773902402 0.00592628487371073 -79.0389683094548 
! Port Impedance50               0                0                0                0                0                50               0                

2.29086765276777E-08 0.00118061620837841 -10.5660255806926 0.998839333210542 -0.0124241998371333 0.998839333210542 -0.0124241998441844 0.00118065073693506 -10.5750154372253 
! Port Impedance50               0                0                0                0                0                50               0                

2.39883291901949E-08 0.00566779500835629 -78.5029537082758 0.998823844200286 -0.319332423721948 0.998823844200315 -0.319332423721646 0.00569276142387587 -78.5555173584105 
! Port Impedance50               0                0                0                0                0                50               0                

2.51188643150958E-08 0.00252595147228401 62.7751533005671 0.998836818515383 0.129145844781311 0.99883681851544 0.129145844782979 0.00253535652022278 62.8850549097848 
! Port Impedance50               0                0                0                0                0                50               0                

2.63026799189538E-08 0.00116575069605452 -5.37081715933686 0.998839350515393 -0.00625592067467908 0.99883935051545 -0.00625592068005075 0.00116573811661302 -5.36423110024469 
! Port Impedance50               0                0                0                0                0                50               0                

2.75422870333817E-08 0.00657384610980336 -80.2035049415209 0.998818253806943 -0.372457358497386 0.998818253807057 -0.372457358497585 0.00660317381024154 -80.2491455583226 
! Port Impedance50               0                0                0                0                0                50               0                

2.88403150312661E-08 0.00444853012972954 -75.1235579704706 0.998830060531606 -0.247202222751077 0.998830060531606 -0.247202222751224 0.00446785516153635 -75.1905237626828 
! Port Impedance50               0                0                0                0                0                50               0                

3.01995172040202E-08 0.00874419123638224 -82.8716141456644 0.998801493104482 -0.498890820514515 0.998801493104454 -0.498890820514097 0.00878413429666079 -82.9065001663518 
! Port Impedance50               0                0                0                0                0                50               0                

3.16227766016838E-08 0.00633644311174505 -79.8043220962065 0.998819798198677 -0.358566285592511 0.998819798198649 -0.358566285592789 0.00636466893981071 -79.8516591844549 
! Port Impedance50               0                0                0                0                0                50               0                

3.31131121482591E-08 0.00230912710549287 -59.9405604464713 0.998837348789736 -0.114892303025236 0.998837348789707 -0.114892303024921 0.00231664056323655 -60.0485410743664 
! Port Impedance50               0                0                0                0                0                50               0                

3.46736850452532E-08 0.00451607686164997 -75.359062968383 0.998829755851382 -0.25121976189677 0.998829755851411 -0.251219761897024 0.0045354640799532 -75.4241825152907 
! Port Impedance50               0                0                0                0                0                50               0                

3.63078054770101E-08 0.0065018304451138 -80.0854716254746 0.998818724545779 -0.368260932075355 0.998818724545694 -0.368260932075501 0.00653135191976802 -80.132449630386 
! Port Impedance50               0                0                0                0                0                50               0                

3.80189396320561E-08 0.00407447362239714 73.6746340315164 0.99883166571882 0.224830479780726 0.998831665718791 0.224830479780554 0.00409224923739907 73.7485798109464 
! Port Impedance50               0                0                0                0                0                50               0                

3.98107170553497E-08 0.0052247002736459 -77.4582916652974 0.998826277362633 -0.293225679408826 0.998826277362605 -0.293225679409115 0.00524750132434829 -77.5150046704047 
! Port Impedance50               0                0                0                0                0                50               0                

4.16869383470336E-08 0.00365769923228535 -71.6991258433668 0.99883329169158 -0.199669567550443 0.998833291691609 -0.199669567550214 0.00367309266246758 -71.7794500439587 
! Port Impedance50               0                0                0                0                0                50               0                

4.36515832240166E-08 0.0015429640733889 -41.2757276831041 0.998838835304527 -0.0585171245946774 0.998838835304555 -0.0585171245970623 0.00154592793289604 -41.4009715746495 
! Port Impedance50               0                0                0                0                0                50               0                

4.57088189614875E-08 0.00123207813825897 -19.6298844327961 0.998839270212166 -0.0238063146801313 0.998839270212194 -0.0238063146859291 0.00123281095703629 -19.7252737826634 
! Port Impedance50               0                0                0                0                0                50               0                

4.78630092322638E-08 0.00163560429745387 44.8629944960642 0.998838687207034 0.0663430134573837 0.998838687206977 0.0663430134561583 0.00163956215695872 45.0021227271568 
! Port Impedance50               0                0                0                0                0                50               0                

5.01187233627272E-08 0.00299224665372179 -67.3359065841647 0.998835524279379 -0.158741964984942 0.998835524279351 -0.15874196498438 0.00300357078931408 -67.4267807972649 
! Port Impedance50               0                0                0                0                0                50               0                

5.24807460249773E-08 0.00438217249100455 -74.8849838221474 0.998830355786459 -0.243245565491108 0.998830355786488 -0.243245565491324 0.00440122566761293 -74.9530964058335 
! Port Impedance50               0                0                0                0                0                50               0                

5.49540873857625E-08 0.00159726756957323 -43.4573973545896 0.998838750183439 -0.0631620686924372 0.998838750183439 -0.0631620686912288 0.00160065147049846 -43.5853584248672 
! Port Impedance50               0                0                0                0                0                50               0                

5.75439937337157E-08 0.00352800531162133 -70.9849757012424 0.998833762041268 -0.191776810702818 0.998833762041239 -0.191776810702346 0.00354258473699289 -71.0670978064322 
! Port Impedance50               0                0                0                0                0                50               0                

6.02559586074358E-08 0.0014136126059817 -34.8565621894666 0.998839028423621 -0.0464506591878925 0.998839028423621 -0.0464506591891455 0.00141571417462983 -34.9787015691883 
! Port Impedance50               0                0                0                0                0                50               0                

6.30957344480193E-08 0.00116616687879177 5.58485498255299 0.998839349479917 0.00653124144503861 0.998839349479917 0.00653124145589352 0.00116624417525441 5.62360901732124 
! Port Impedance50               0                0                0                0                0                50               0                

6.60693448007596E-08 0.0012279564801639 -19.0818595992211 0.998839275765841 -0.0230736262557023 0.998839275765841 -0.0230736262588754 0.00122846243126071 -19.1500440065393 